ITEM: TIMESTEP
5000
ITEM: NUMBER OF ATOMS
11486
ITEM: BOX BOUNDS pp pp pp
-2.3022561044234635e-01 5.0230225610442375e+01
-2.3022561044234635e-01 5.0230225610442375e+01
-2.3022561044234635e-01 5.0230225610442375e+01
ITEM: ATOMS id type x y z c_eng c_centrosym_fcc c_centrosym_bcc
247 1 1.81871 2.6211 1.64683 -4.43626 0.0969177 11.3202
248 1 0.75654 0.447442 1.7311 -4.42994 0.0456865 5.98469
277 1 3.2309 0.583445 1.70891 -4.41104 0.0693244 5.48941
121 1 6.71089 3.1661 1.58727 -4.35941 4.14752 5.01188
122 1 5.64007 0.871049 1.77141 -4.39404 0.141342 5.60973
123 1 4.27143 2.86247 1.56485 -4.37222 0.146347 5.27413
147 1 8.047 1.1075 1.79662 -4.33765 0.993141 9.74821
47 1 10.2793 1.74216 1.8995 -4.19413 9.2248 6.38491
4809 1 12.5707 1.63463 1.72226 -4.20486 5.17816 3.72985
9443 1 13.9014 0.387516 -0.0283338 -4.42407 7.11608 4.99557
168 1 11.2516 -0.0366522 0.476919 -4.25381 8.07594 5.01042
4812 1 15.0439 1.91322 1.58447 -4.24251 5.30015 5.094
4831 1 17.4387 1.3278 2.0976 -4.38354 0.213704 10.1971
2396 1 16.4064 0.614851 0.0241482 -4.33018 2.14918 0.28131
4621 1 19.6809 0.612761 2.792 -4.39551 0.0634764 5.83827
4830 1 18.8449 0.0391327 0.525459 -4.40426 0.178227 5.57405
4832 1 19.2431 2.90537 2.31835 -4.32927 2.34965 8.66711
4854 1 20.7316 1.68432 0.868012 -4.30388 4.00008 8.6907
2196 1 18.4246 2.35582 0.0797818 -4.4599 5.06389 4.30111
4655 1 21.5397 2.36754 2.98575 -4.40343 0.134511 5.61672
4654 1 23.0486 1.03199 1.39101 -4.40353 0.175702 5.59401
4691 1 24.9786 2.79776 1.5987 -4.38966 0.755753 5.27683
4855 1 22.5473 3.42733 0.997616 -4.33631 4.13679 7.36141
4688 1 25.2732 0.293261 2.13497 -4.41048 0.15257 5.55673
4689 1 27.1615 2.05198 2.43935 -4.41378 0.335429 11.087
4690 1 26.4126 1.20214 0.210568 -4.29485 5.34676 10.308
4726 1 28.4817 0.3927 0.977705 -4.2383 1.6535 9.96922
4731 1 28.0568 3.2487 0.36173 -4.36803 6.57791 4.12103
4727 1 30.1828 1.9188 0.962342 -4.21165 7.9548 5.76561
4479 1 29.3587 1.24521 3.20715 -4.4467 0.446623 9.18864
743 1 34.9109 1.76899 1.90629 -4.3066 4.74736 9.20965
901 1 33.3571 2.34026 -0.0844685 -4.41458 6.40131 4.63666
4512 1 32.3585 1.69262 2.00156 -4.26328 5.06389 4.75097
898 1 35.0249 0.259971 0.0307132 -4.35833 0.732579 5.37898
900 1 32.6141 -0.139387 0.203845 -4.28837 6.56338 7.06987
741 1 37.3519 1.68629 1.81384 -4.421 0.388477 10.147
746 1 36.0763 2.45259 -0.138975 -4.37356 0.27068 5.72677
763 1 37.531 0.232037 -0.147147 -4.425 0.234608 5.31488
764 1 38.6005 2.44378 -0.22496 -4.43198 0.102248 5.56343
574 1 42.3504 2.07498 1.79007 -4.44109 0.0887191 5.58942
575 1 41.2502 -0.226781 1.8952 -4.43207 0.0785234 11.2734
576 1 39.9211 1.85341 1.78569 -4.43727 0.0731655 5.85969
606 1 42.5133 0.533649 -0.178529 -4.43953 0.105043 11.4343
761 1 40.0245 0.350556 -0.153421 -4.44326 0.0987413 11.2155
579 1 41.171 2.56861 -0.269026 -4.41755 0.220248 10.3921
410 1 46.2286 0.139011 1.84726 -4.45205 0.0429547 5.86177
411 1 44.8217 2.2273 1.82379 -4.45413 0.143714 11.0556
603 1 43.7263 -0.0527861 1.85533 -4.43157 0.0804369 5.69018
607 1 43.5881 2.79873 -0.324618 -4.42591 0.124239 11.0356
604 1 44.922 0.737937 -0.205522 -4.43164 0.069692 5.5561
249 1 49.809 2.54275 1.67682 -4.43792 0.0537325 5.83645
409 1 47.3176 2.3423 1.78761 -4.45505 0.10117 11.4698
440 1 48.7255 0.279805 1.78241 -4.4544 0.0461003 11.6686
443 1 47.4123 0.891958 -0.226186 -4.43457 0.0344215 5.62067
101 1 2.89808 4.89267 1.52681 -4.41748 0.0847861 5.75992
250 1 0.490194 4.7699 1.59392 -4.41975 0.0852273 11.2467
124 1 5.37416 5.11542 1.51354 -4.31693 3.27312 3.78705
48 1 9.17171 3.78257 1.69182 -4.261 5.97408 4.02439
37 1 7.48227 5.38201 2.71867 -4.33661 4.3396 3.9099
51 1 8.66815 6.01682 0.73417 -4.2799 5.20008 1.42215
2531 1 13.2023 3.39273 0.42574 -4.24929 9.3336 7.10883
4795 1 11.5357 4.05453 2.04637 -4.35233 2.67997 5.53722
49 1 10.6818 6.47157 1.97515 -4.32094 8.16005 4.74262
2376 1 14.0439 6.92091 -0.160616 -4.36198 0.532147 10.2905
2387 1 13.4433 5.94043 2.17074 -4.49123 5.5505 4.26987
2530 1 12.069 5.62652 0.20542 -4.24499 5.72514 6.78649
4813 1 13.7403 3.47995 2.84897 -4.34742 2.10756 4.96315
50 1 10.6929 3.7777 -0.206918 -4.22907 4.42691 7.6395
2181 1 17.5474 6.46559 0.0511056 -4.33478 0.769985 4.35009
2388 1 15.2542 5.00786 0.648324 -4.4241 5.06896 4.80266
4816 1 15.5365 5.01381 3.07862 -4.32338 5.28133 6.4834
4833 1 16.9761 3.64147 1.58689 -4.4217 5.32303 6.2934
4836 1 17.6375 5.96238 2.34839 -4.20095 4.6813 5.77544
1950 1 21.2225 5.73879 0.387244 -4.35607 1.346 5.15768
2192 1 19.0139 4.76044 0.872582 -4.30556 4.50286 4.70425
4856 1 20.9439 4.71947 2.47567 -4.37576 3.66374 5.82504
2177 1 19.7324 6.94479 1.94729 -4.29699 2.32111 4.69142
4857 1 22.668 6.44153 2.44532 -4.43945 5.5148 4.42821
4873 1 24.253 5.18971 0.969669 -4.40704 4.72251 5.72788
4658 1 23.4036 4.09673 3.13844 -4.41388 0.301283 5.22403
1708 1 26.536 6.5395 0.340488 -4.3298 4.1823 7.59272
4694 1 26.6622 4.5071 1.92136 -4.26445 4.13551 4.76963
4732 1 28.4809 6.24499 2.06786 -4.3324 5.35639 6.05085
4695 1 25.1935 5.81688 3.35331 -4.4072 3.30324 9.48287
1485 1 30.2222 5.93863 0.483325 -4.32523 4.98312 5.48044
4729 1 28.9964 3.71119 2.58474 -4.40922 3.9869 9.71051
4730 1 30.6366 5.39567 3.04473 -4.33502 4.0765 5.26013
4762 1 31.4004 3.88598 1.25798 -4.22605 5.88546 6.96804
748 1 35.6461 6.68499 0.0324826 -4.34206 6.28956 6.14175
4515 1 33.6723 3.80657 1.94642 -4.17062 6.26109 5.63153
4763 1 32.5011 5.98076 1.45777 -4.27164 4.60472 8.44602
4783 1 34.7757 6.08204 2.38364 -4.31214 9.07418 6.01533
747 1 34.4943 4.54734 -0.18998 -4.39983 7.67299 5.99837
553 1 38.55 3.89972 1.71172 -4.37744 0.236436 5.2279
554 1 37.2625 6.14133 1.71566 -4.30476 3.75388 6.01083
744 1 36.0629 3.9971 1.82825 -4.33257 3.87771 9.24637
745 1 37.2261 4.57163 -0.253632 -4.37668 0.277905 11.4442
383 1 42.1281 6.35725 1.58788 -4.42126 0.0825268 11.0331
552 1 39.7071 6.1514 1.54644 -4.41004 0.253007 5.62977
577 1 41.0065 4.09171 1.6776 -4.43634 0.0292445 5.73645
381 1 44.6249 6.53564 1.54461 -4.43717 0.0691026 11.3148
382 1 43.4959 4.3115 1.6808 -4.44825 0.0268674 5.90404
412 1 45.987 4.44322 1.64864 -4.45643 0.0530451 5.93799
223 1 49.5769 6.84974 1.44111 -4.44919 0.0773594 11.4327
224 1 48.448 4.60088 1.62829 -4.45575 0.0547626 5.8093
225 1 47.0844 6.7519 1.48751 -4.44351 0.104433 11.4952
85 1 0.162345 9.15155 1.31065 -4.41459 0.105425 5.69964
102 1 1.60489 7.02978 1.47588 -4.43132 0.138682 5.50724
103 1 2.6408 9.23396 1.3513 -4.40849 0.196535 10.4943
25 1 5.13201 9.25161 1.32129 -4.27799 4.88348 7.59317
38 1 6.56206 7.30357 1.48974 -4.36803 6.6123 6.42797
100 1 4.03163 7.11644 1.38352 -4.37239 0.154024 10.9062
3 1 7.06311 9.74529 2.71838 -4.26804 5.50926 5.6466
36 1 8.8306 8.24895 1.79057 -4.35812 7.25344 6.07364
39 1 8.00186 10.2563 0.69453 -4.22662 5.49394 7.19622
2522 1 10.3676 7.78194 -0.115185 -4.30698 6.30025 5.38241
2516 1 12.8804 10.295 2.3383 -4.36691 0.345004 5.05983
2517 1 12.387 8.05338 1.39993 -4.37975 0.876833 4.84917
2518 1 10.7928 9.16054 2.90211 -4.24549 5.10904 7.69196
2519 1 10.8811 9.91191 0.639992 -4.30845 1.15286 5.29726
2370 1 16.3368 9.63054 2.49032 -4.40797 1.23316 4.12892
2371 1 15.7628 7.29637 1.54862 -4.39731 4.57619 4.51974
2373 1 14.4743 9.22862 0.755074 -4.40676 0.205599 5.44148
2349 1 16.485 10.5638 0.168761 -4.43492 0.21331 5.43558
2372 1 14.2325 8.37902 3.13959 -4.44815 3.49915 3.25963
2156 1 19.9493 10.0667 0.413632 -4.43946 0.501707 5.51391
2176 1 20.0969 9.56396 3.01709 -4.29587 4.75931 5.77438
2178 1 17.9277 8.6284 1.08117 -4.41691 3.99943 3.73101
1947 1 21.4306 8.25795 1.15901 -4.24469 1.34407 4.70514
1707 1 24.6679 7.56567 1.44506 -4.23287 5.56551 9.38116
1927 1 23.4031 9.54245 0.508985 -4.41439 0.296262 0.254257
1946 1 22.8888 8.85728 2.84505 -4.22464 7.34688 7.17245
1690 1 24.9211 10.2134 2.36235 -4.31826 5.68379 9.2819
1689 1 26.6014 8.9091 0.965043 -4.30764 5.28886 9.55504
1472 1 28.621 7.88655 -0.29374 -4.4102 4.06208 4.7804
1468 1 28.6156 8.81312 2.12686 -4.22476 7.71089 8.45418
1467 1 30.706 8.33419 0.890202 -4.14146 5.84852 5.06799
1469 1 28.9595 10.2186 0.226294 -4.33674 1.06161 5.14388
4735 1 30.6061 7.77769 3.02348 -4.09788 6.31612 7.51555
1466 1 30.4815 10.5511 1.99077 -4.42833 6.07294 6.35979
4766 1 32.4144 9.45545 2.97278 -4.4158 6.36556 6.18777
1280 1 34.5391 10.2555 1.99548 -4.33178 7.00009 7.1837
1281 1 33.7978 8.02903 1.40266 -4.26011 3.0663 7.67071
1282 1 32.5227 9.74403 0.429147 -4.29458 0.714565 5.35611
541 1 36.1241 8.29642 2.0601 -4.25659 7.51291 4.98996
555 1 38.3316 8.40842 1.49034 -4.28885 4.92897 3.92091
1154 1 36.7482 10.2905 0.759737 -4.27276 6.12467 5.76688
349 1 37.8263 10.562 2.90437 -4.30785 4.63144 8.68993
363 1 40.7368 8.4557 1.39653 -4.39167 0.104547 11.185
361 1 40.4892 9.99747 3.31728 -4.45677 4.7747 9.0182
364 1 39.449 10.62 1.15796 -4.33669 1.25964 9.38072
204 1 45.7002 8.76973 1.40903 -4.42658 0.109078 11.1721
384 1 43.1917 8.54793 1.40238 -4.44637 0.136741 5.53573
202 1 45.4877 10.2957 3.35152 -4.39651 4.65605 7.61631
226 1 48.2169 8.99048 1.3348 -4.41902 0.313397 11.0377
69 1 47.9751 10.5027 3.18495 -4.34427 5.21728 5.33442
83 1 -0.0316724 10.6785 3.26402 -4.43609 3.98288 2.57488
84 1 1.09441 11.4901 1.14973 -4.27658 4.24042 7.91317
7205 1 0.433834 13.9753 0.948109 -4.3395 4.44736 4.54615
7208 1 3.15432 13.7988 0.772955 -4.2925 2.56727 5.16686
7122 1 2.0367 12.9938 2.65252 -4.19421 6.43164 8.8726
23 1 4.9146 10.8542 3.17428 -4.37488 7.57107 5.33378
24 1 5.7365 11.3579 0.681108 -4.1608 5.69321 6.6496
26 1 3.45299 11.4514 1.24742 -4.26884 6.7683 4.55521
7213 1 5.64134 13.814 0.219978 -4.11522 6.63113 7.51922
7217 1 5.00218 13.0335 2.27084 -4.13659 6.73293 6.38448
2567 1 9.68425 11.7803 -0.156664 -4.20754 6.05018 6.90486
2575 1 9.29028 11.1001 2.70152 -4.48141 9.12683 5.9698
7216 1 9.12673 13.6986 1.36809 -4.47617 8.0573 9.20067
7218 1 7.33356 12.2387 2.01636 -4.20645 5.48034 4.72707
2493 1 13.1386 12.7472 3.31817 -4.48445 5.66862 4.03524
2495 1 13.3375 13.3959 0.757148 -4.38842 0.478769 4.52011
2496 1 13.0235 11.0178 -0.0390086 -4.43728 0.16487 5.45361
2497 1 11.4181 12.0755 1.51696 -4.36771 3.15986 9.32746
2347 1 14.9351 14.065 2.44314 -4.39443 1.76264 5.12415
2348 1 16.7149 13.0465 0.867289 -4.38663 0.405534 10.5653
2350 1 14.7787 11.6173 1.64707 -4.40657 0.278454 5.31959
2345 1 16.6267 12.1866 3.16489 -4.32998 5.11112 4.78486
2154 1 18.5128 13.6059 2.52137 -4.39937 0.229433 5.43269
2155 1 20.208 12.5113 1.06397 -4.42397 0.252148 10.5353
2157 1 18.2952 11.063 1.85328 -4.42623 0.667212 0.306857
1928 1 21.7565 10.809 1.896 -4.23347 4.97727 4.84269
1901 1 22.2818 13.7331 0.479459 -4.4295 0.0419194 5.8341
1925 1 21.9947 13.1407 2.7633 -4.33447 0.371654 0.31798
1926 1 23.7309 12.0113 1.36179 -4.36952 0.318169 10.7266
1661 1 27.5799 13.561 2.53732 -4.42448 0.263083 11.2755
1666 1 25.8169 13.1485 0.733957 -4.41161 0.117964 11.249
1687 1 25.4811 12.3967 3.08533 -4.38569 1.04697 10.2083
1688 1 27.1909 11.237 1.68082 -4.40591 1.09108 0.465543
1691 1 25.4641 10.8136 -0.017594 -4.42565 0.155241 11.0412
1440 1 30.945 12.8792 2.78666 -4.38148 4.52011 9.19782
1443 1 31.3477 13.8111 0.45402 -4.40995 0.19821 5.44523
1445 1 29.2752 12.5214 1.0839 -4.38658 0.168266 5.55292
1259 1 34.7189 13.2985 0.734779 -4.29586 5.02462 3.6785
1261 1 32.667 11.9218 1.29921 -4.29717 3.68748 8.34888
1258 1 33.0481 14.156 2.3259 -4.44001 5.44075 3.73824
1260 1 34.5215 11.0333 -0.211169 -4.33498 2.44518 9.95767
1148 1 38.2134 12.6623 0.928771 -4.33436 6.57476 8.19944
1149 1 36.2008 12.1531 2.01863 -4.10275 5.4379 7.98814
348 1 39.4727 12.3923 3.00934 -4.30597 5.01505 4.05781
189 1 42.0513 12.4333 2.99036 -4.32677 0.861039 5.26394
362 1 41.8273 10.7186 1.23241 -4.41427 0.290339 10.0424
365 1 40.65 12.9329 1.02946 -4.24689 0.976858 4.08156
190 1 43.0799 13.0162 0.884574 -4.33298 0.615893 5.04043
187 1 44.6113 12.5216 2.74516 -4.23394 4.51013 3.4198
205 1 44.2315 10.8068 1.19988 -4.3563 0.888645 4.38643
206 1 45.6052 13.3002 0.677581 -4.43067 2.53726 8.37077
68 1 50.0909 13.1439 3.03718 -4.43788 8.55992 6.60026
70 1 47.5597 12.8624 2.27524 -4.30207 6.42417 4.35975
71 1 48.0891 13.5789 -0.0581513 -4.22518 9.04117 8.0748
86 1 49.1725 11.4583 1.19961 -4.39001 5.86057 3.46894
203 1 46.665 10.9584 1.14151 -4.36461 4.47104 9.18343
7115 1 1.34979 15.3322 2.80532 -4.34989 6.26014 5.71892
7116 1 3.32212 17.1664 2.43692 -4.33945 5.65602 7.36636
7207 1 2.18744 15.954 0.598571 -4.3579 5.09464 3.97144
7112 1 -0.128581 16.6255 1.49525 -4.2296 5.19123 5.72527
7119 1 5.74067 16.7588 2.82201 -4.28277 4.74981 3.05964
7191 1 3.81493 17.7706 0.163941 -4.36102 4.84447 6.88986
7211 1 4.70648 15.7601 0.909021 -4.29013 5.37537 7.66303
7212 1 6.88477 14.6804 2.26846 -4.37655 5.72548 4.80734
7118 1 3.72363 14.789 3.02829 -4.36992 5.426 4.94714
7214 1 7.57822 15.2384 -0.0115799 -4.41123 5.9583 5.11778
7215 1 8.06031 16.791 2.0616 -4.29054 6.01828 5.0317
2468 1 9.92402 15.9843 0.766346 -4.31452 5.95848 5.52653
6140 1 9.66362 15.4056 3.26582 -4.39482 5.67166 4.17453
2467 1 13.426 15.8718 1.47996 -4.4395 0.812028 10.5079
2469 1 11.9489 17.5544 0.37859 -4.41948 0.273273 0.184292
2494 1 11.458 14.5123 1.76872 -4.15712 5.45875 8.58869
5923 1 11.4348 16.9812 2.61188 -4.28988 1.38568 9.39034
2315 1 17.1852 17.6913 2.49198 -4.42144 0.177835 11.6278
2316 1 16.9295 15.3684 1.69759 -4.41115 0.0721229 5.80499
2318 1 15.4403 17.1584 0.793797 -4.4175 0.0517117 5.90977
2321 1 15.2095 14.7715 0.0409219 -4.40367 0.108528 5.55922
2317 1 15.0717 16.4136 3.25892 -4.43298 4.09326 4.78003
2123 1 20.7985 17.1033 2.72368 -4.43411 0.142871 10.7511
2124 1 20.5323 14.8329 1.90445 -4.40456 0.0888171 0.0638375
2126 1 18.9918 16.5894 1.06047 -4.42487 0.0456796 5.88
2129 1 18.7357 14.2945 0.228963 -4.43033 0.0614281 5.72707
2125 1 18.7251 15.9653 3.39085 -4.40458 0.109952 0.0706302
1861 1 24.7006 17.2038 0.712363 -4.45371 0.0530557 11.5562
1895 1 24.4308 16.5595 3.04564 -4.42977 0.0760886 11.4711
1896 1 24.0868 14.2722 2.18824 -4.40738 0.093496 0.0642227
1898 1 22.5868 16.0119 1.42213 -4.42024 0.313716 9.74188
1899 1 24.4379 14.9327 -0.120006 -4.42814 0.148127 5.58362
1628 1 28.287 16.6102 1.0983 -4.4416 0.255699 5.40633
1663 1 26.1518 15.42 1.68942 -4.44894 0.160707 5.56695
1664 1 27.9398 14.3379 0.188216 -4.44481 0.070995 5.67507
1629 1 26.4898 17.7841 2.40274 -4.42302 0.149949 5.36707
1410 1 31.6577 16.0735 1.45772 -4.40634 0.336825 5.57804
1411 1 29.9917 17.1047 2.89234 -4.39793 0.169071 0.151185
1442 1 29.7022 14.813 2.05007 -4.38202 0.338096 5.13665
1227 1 35.1786 15.4747 1.53193 -4.36107 4.97981 3.96246
1228 1 33.4912 16.5212 3.04748 -4.42105 5.15268 4.56018
1229 1 33.6151 17.3908 0.647069 -4.36573 0.241775 5.61856
1232 1 33.3817 15.1051 -0.192748 -4.4169 0.124465 5.55943
1226 1 35.4417 17.7575 2.15629 -4.36531 6.11439 5.9033
1147 1 37.446 14.6004 2.30652 -4.38192 6.5543 7.98041
1128 1 39.3131 14.8665 0.419528 -4.26764 5.42241 4.32993
1129 1 37.511 17.1349 3.22424 -4.18826 5.03909 5.21623
1130 1 37.5128 16.9017 0.786514 -4.43814 7.86635 4.94363
1133 1 36.8716 14.594 -0.0112194 -4.28125 5.86789 6.50915
178 1 40.7574 14.4611 3.0173 -4.20488 3.4651 4.76808
6965 1 39.4586 16.2618 2.33388 -4.21131 9.30354 6.0681
6966 1 42.1062 16.8778 3.18776 -4.49563 7.71728 5.73059
7103 1 41.6283 15.4594 0.967794 -4.3921 4.62205 6.65755
7104 1 43.2769 14.6759 2.59581 -4.3118 5.07164 4.58352
7106 1 44.7974 16.5324 2.06499 -4.32779 4.72546 3.53327
7107 1 45.8412 14.5755 2.93053 -4.39808 3.08982 8.24326
7081 1 43.054 17.5562 0.662818 -4.39213 0.573785 5.27935
7105 1 43.9723 15.2301 0.294704 -4.32117 5.529 4.08028
7108 1 46.6745 15.5254 0.704605 -4.37124 5.37525 6.52197
7090 1 48.4069 17.4728 0.531887 -4.41575 2.78196 4.51446
7109 1 47.433 16.5924 2.67651 -4.36995 2.07165 3.42543
7111 1 48.8105 14.8567 1.80204 -4.22708 4.92426 5.87468
7092 1 0.854071 20.5665 1.96752 -4.42919 0.352174 4.8466
7093 1 2.66313 19.4094 3.19448 -4.39115 0.268 9.82961
7094 1 1.57224 18.3147 1.21852 -4.32815 0.429852 5.71307
7095 1 3.13983 20.0981 0.926555 -4.4073 0.302733 9.98898
7195 1 6.37959 17.8289 0.734693 -4.31812 5.41173 5.0234
7194 1 5.16921 19.6953 -0.201363 -4.26365 4.72451 4.48601
7096 1 4.357 21.2371 2.75191 -4.37596 0.561364 4.13605
7098 1 4.93656 19.0074 2.2282 -4.35328 5.79009 5.8699
7099 1 6.3553 20.8033 1.60928 -4.23975 2.1881 5.30526
7101 1 7.57646 19.0639 2.73422 -4.38425 5.27418 9.28933
7102 1 9.51763 20.6766 2.64074 -4.34273 6.81802 7.56786
7198 1 8.23507 19.8268 0.473689 -4.40115 0.649542 9.6848
7199 1 9.88011 18.4569 1.51735 -4.35166 0.665822 5.288
7175 1 10.1605 21.3679 0.203609 -4.42082 0.911099 4.11886
2466 1 13.6085 18.26 2.19753 -4.4595 0.928049 5.02332
7202 1 11.9804 19.9556 0.990942 -4.32698 2.11465 8.85279
2437 1 13.713 20.7162 2.4372 -4.1055 5.12716 6.53485
2439 1 13.9691 19.001 -0.193713 -4.45476 0.346996 5.35489
5954 1 11.417 19.378 3.20056 -4.19334 5.85766 7.12805
2283 1 17.4755 18.4263 0.156603 -4.43177 0.0645588 5.68066
2284 1 15.6646 19.4704 1.60042 -4.38399 0.699859 3.52392
2282 1 17.6684 20.6812 0.950561 -4.4262 0.280793 5.44649
2279 1 17.4127 19.9574 3.33875 -4.381 0.362008 10.2719
2088 1 21.0618 17.8134 0.433771 -4.40703 0.0428617 5.89392
2086 1 19.4879 21.1873 2.59066 -4.40485 0.101007 5.66591
2089 1 19.2934 18.9031 1.85701 -4.44166 0.0689757 5.58826
2087 1 21.3759 20.0879 1.15584 -4.44462 0.0384481 5.77817
1859 1 23.1703 20.5745 2.86066 -4.4187 0.0634986 5.58643
1862 1 22.9141 18.3006 2.07865 -4.40552 0.0569783 5.6714
1860 1 24.9621 19.5291 1.48965 -4.40578 0.0422433 5.58251
1822 1 23.4411 21.2843 0.535577 -4.40064 0.0450013 5.56094
1590 1 27.0367 20.698 0.87927 -4.4283 0.0719361 5.48325
1626 1 26.8061 20.0055 3.22633 -4.43343 0.122251 5.47852
1627 1 28.5282 18.9454 1.81715 -4.42336 0.0614227 5.85788
1630 1 26.754 18.4231 0.0435807 -4.42592 0.108244 5.65136
1373 1 30.5209 20.1784 1.19091 -4.40449 0.155637 5.54218
1409 1 31.9864 18.3805 2.14491 -4.38894 0.0539061 0.0346755
1412 1 30.2545 17.8494 0.429409 -4.43274 0.118127 5.54939
1585 1 28.8542 21.2395 2.57521 -4.45909 0.0936902 11.4212
1196 1 33.9581 19.6529 1.35318 -4.41088 0.12801 5.57198
1368 1 32.3012 20.7499 2.83862 -4.42143 0.0530792 5.8767
1191 1 35.7057 20.1396 3.17191 -4.35551 7.00854 5.02747
1195 1 35.7472 18.665 -0.0857191 -4.34069 0.897109 5.09725
1107 1 35.9054 20.9486 0.63874 -4.19999 6.50364 6.22056
6942 1 37.4216 19.3673 1.8584 -4.37183 7.56549 5.67277
6943 1 39.0701 19.2037 0.234488 -4.22464 2.84477 7.10244
6801 1 38.504 21.0947 3.21125 -4.15084 5.5378 2.5793
6963 1 39.4386 18.6157 3.2533 -4.37252 5.91563 5.88299
6944 1 40.2248 20.5148 1.84593 -4.21386 5.07177 4.95371
6945 1 41.7785 19.4983 3.28369 -4.31489 3.85973 5.36812
6946 1 40.8408 18.0337 1.39713 -4.30589 5.25275 5.48629
6947 1 42.36 20.1118 0.99383 -4.35542 0.31385 10.6565
6948 1 43.3512 21.3525 2.9581 -4.39443 0.392124 5.26404
6950 1 43.9799 18.8786 2.48971 -4.40303 0.35967 10.3401
6951 1 45.6231 20.7204 1.98748 -4.40596 0.199647 5.1619
7084 1 44.5797 19.4723 0.127285 -4.44768 0.195737 10.4991
7085 1 46.3253 18.364 1.48529 -4.35613 1.62237 6.43951
6954 1 47.2809 19.6344 3.31937 -4.29326 2.81069 9.718
6955 1 49.1068 21.2415 2.92773 -4.40037 0.331275 11.1444
7088 1 48.0008 20.0659 1.03573 -4.39335 0.437944 5.10812
7089 1 49.423 18.7018 2.63182 -4.53535 6.13878 5.29768
7091 1 50.1633 19.3244 0.164907 -4.43241 1.31402 8.05733
6933 1 0.353761 23.0021 2.47496 -4.43903 0.0970022 11.2109
6934 1 2.12527 24.8035 2.09116 -4.4021 0.0745833 5.62154
7064 1 0.891781 23.6766 0.147027 -4.45418 0.109442 10.7872
7065 1 2.5442 22.4632 1.44047 -4.45468 0.134672 5.27488
7068 1 4.27559 24.2369 1.031 -4.35511 0.169359 5.66048
7069 1 5.99172 23.0968 2.2481 -4.29271 0.722278 5.0333
7070 1 4.6839 21.9908 0.413461 -4.38108 0.279414 5.10098
7071 1 6.47654 23.639 -0.0329446 -4.41581 0.0681536 5.52922
7072 1 7.75034 24.6059 1.95207 -4.35506 0.320063 0.101799
7073 1 9.515 23.4052 3.17231 -4.19145 5.28633 8.48128
7074 1 8.17508 22.2729 1.24308 -4.39421 0.48021 4.81717
7075 1 10.0535 23.7878 0.980024 -4.2582 1.11346 5.19252
7178 1 12.0757 22.867 -0.141634 -4.37203 1.96661 7.43739
2438 1 14.1062 21.4548 0.329136 -4.27009 5.90903 7.57588
7077 1 11.5298 22.0589 2.51494 -4.31818 5.83075 7.62652
7078 1 13.4289 23.3863 1.91373 -4.29409 6.62461 4.54842
2250 1 16.241 22.5193 -0.150223 -4.35167 5.43766 3.77109
2281 1 15.8227 21.8645 2.19771 -4.37777 5.20401 3.63216
2411 1 15.6136 24.2641 1.36755 -4.31673 3.94665 4.49043
2049 1 20.0264 24.1551 1.02558 -4.39429 4.60008 6.84737
2052 1 19.8229 21.9015 0.302508 -4.44559 0.159391 5.84002
2245 1 17.9442 23.0343 1.67097 -4.43069 5.10147 2.22377
2048 1 19.8496 23.4573 3.31311 -4.33388 4.204 3.12033
1819 1 23.7457 23.4944 1.33674 -4.34111 0.281331 5.10104
2046 1 21.9308 24.5699 2.85209 -4.30843 1.4642 5.01451
2047 1 21.6846 22.3885 1.95174 -4.39815 0.132827 5.40428
1587 1 27.2304 22.9403 1.61458 -4.37608 0.431968 5.35636
1816 1 25.5305 24.028 3.04387 -4.40385 0.257319 5.81785
1817 1 25.2413 21.7331 2.28122 -4.39971 0.115579 5.68847
1820 1 25.4871 22.5162 -0.0119578 -4.39864 0.0913971 5.50101
1777 1 25.8039 24.9015 0.754976 -4.33644 4.31357 4.25181
1330 1 31.0582 24.8592 2.45168 -4.25431 4.84269 8.71334
1370 1 30.9145 22.5337 1.88931 -4.38045 0.549046 5.1485
1543 1 29.314 24.1591 0.928741 -4.13901 5.17614 4.36085
1588 1 29.0894 21.9426 0.227111 -4.36337 0.454944 10.1119
1584 1 29.0704 23.5857 3.25404 -4.4178 0.0876486 11.2979
1193 1 34.278 22.0255 2.10588 -4.36435 4.86443 4.62825
1371 1 32.472 21.5631 0.456115 -4.35618 0.376591 5.09957
8686 1 35.6754 24.0652 1.39843 -4.09804 9.29306 8.61076
1331 1 33.0403 24.184 1.34658 -4.39488 7.3199 5.28281
1329 1 34.3727 22.864 -0.117014 -4.09212 7.04649 6.04388
1367 1 32.6292 23.0988 3.51636 -4.27843 3.11618 8.08547
6778 1 36.7404 22.2661 2.26339 -4.15569 2.81976 8.39691
6779 1 37.9734 24.3256 0.913928 -4.32889 7.19432 6.38356
6917 1 38.4885 21.6976 0.704687 -4.38735 3.64357 3.87982
6782 1 39.4177 23.1567 2.45949 -4.38797 3.32694 6.38599
6783 1 41.2607 24.85 1.96292 -4.36393 0.350494 10.4008
6919 1 40.0391 23.5685 0.04146 -4.37149 0.60007 5.53997
6920 1 41.6982 22.4719 1.50188 -4.43556 0.243801 4.54797
6923 1 43.424 24.2757 1.07162 -4.42677 0.093361 5.82941
6924 1 45.0984 23.0523 2.6512 -4.42802 0.404416 10.1507
6925 1 43.9938 21.922 0.59159 -4.42322 0.114979 5.54142
6926 1 45.6745 23.6778 0.297424 -4.40977 0.319435 10.5332
6927 1 46.8334 24.8032 2.16087 -4.4565 0.201973 5.14733
6929 1 47.3735 22.4102 1.61754 -4.43731 0.10394 5.4133
6930 1 49.1122 24.1964 1.16996 -4.44732 0.107068 5.28976
7061 1 49.6547 21.8233 0.644026 -4.40493 0.0849422 5.54689
94 1 1.84997 1.20427 5.81537 -4.35615 0.881524 4.9729
97 1 3.09601 1.99471 3.66153 -4.40443 0.27522 5.18622
246 1 0.609402 1.91101 3.73271 -4.47469 0.0387993 11.9057
243 1 1.95413 -0.223952 3.77223 -4.43118 0.179011 5.34186
30 1 6.93025 2.06908 5.60569 -4.33253 6.05808 5.92947
92 1 4.33303 1.50639 5.93047 -4.39041 2.15167 4.86382
119 1 4.46214 0.0349087 3.76431 -4.34608 0.128502 11.3497
120 1 5.52514 2.38119 3.73684 -4.37465 2.52181 5.00032
117 1 6.89152 0.366153 3.81302 -4.31219 0.636908 5.29051
29 1 8.00486 -0.0908297 6.163 -4.29051 6.20252 4.44992
28 1 9.39004 1.81297 6.24288 -4.32715 4.06004 3.91891
33 1 7.95781 2.94258 3.63014 -4.33572 5.56472 3.89691
45 1 9.15164 0.802423 4.00314 -4.26626 6.70915 6.03904
46 1 10.4377 2.88592 4.02651 -4.33815 5.09567 5.50729
4793 1 11.5342 0.584216 3.64278 -4.27053 5.08923 7.90846
4810 1 14.0791 0.9917 3.50785 -4.34592 5.64434 4.43951
4569 1 13.0047 -0.0409589 5.35259 -4.36886 5.71349 7.30754
4570 1 11.6397 1.37887 6.74667 -4.31937 2.53526 8.52542
4794 1 12.6253 2.41537 4.82663 -4.34996 3.04153 4.4204
4591 1 17.2292 0.894445 6.31785 -4.42903 0.0262546 5.72003
4592 1 16.4232 0.321076 4.08661 -4.43334 0.111606 5.18256
4593 1 14.9028 1.62197 5.63863 -4.41824 0.0823217 5.64083
4596 1 16.8117 3.23801 5.90297 -4.42409 0.0544466 5.9658
4811 1 16.0349 2.68353 3.65498 -4.40461 0.330134 9.93642
4620 1 20.5338 1.24565 5.02703 -4.42882 0.0324021 11.6166
4622 1 18.288 1.91401 4.35692 -4.41309 0.059889 5.45397
4623 1 19.0946 2.54506 6.65228 -4.4389 0.115199 11.3777
4396 1 22.822 0.535385 5.69625 -4.41997 0.0799846 5.72531
4399 1 24.652 2.22246 5.96358 -4.44545 0.0736037 11.7408
4652 1 21.9678 -0.0243609 3.46895 -4.43462 0.0495003 5.88141
4653 1 23.8505 1.67494 3.661 -4.46741 0.0725823 6.10788
4656 1 22.3892 2.94247 5.30724 -4.45013 0.136741 11.3713
4394 1 25.0917 -0.1448 6.49931 -4.43383 0.0361336 5.70693
4436 1 28.263 0.217593 5.26102 -4.41839 0.100911 10.7494
4438 1 26.1382 0.954817 4.38851 -4.42321 0.242116 5.59548
4439 1 26.8875 1.5502 6.75306 -4.45135 0.0612295 5.89699
4441 1 27.9584 2.66022 4.76122 -4.42593 0.128244 5.484
4692 1 25.6595 3.39924 3.95413 -4.40955 0.0942875 5.80845
4477 1 31.5846 0.518857 4.02627 -4.40956 0.991815 4.74102
4480 1 30.102 1.84893 5.56459 -4.41614 0.0652492 5.39809
4482 1 31.1316 2.98418 3.59443 -4.36654 1.69564 3.99348
4235 1 33.8451 -0.0668053 4.96228 -4.26855 7.17342 5.04284
4204 1 32.3316 1.08327 6.38144 -4.31482 0.342702 5.77786
4239 1 34.0253 2.70015 6.74974 -4.23784 4.81828 9.44977
4513 1 33.6377 2.30702 4.14342 -4.50722 5.81227 5.035
4238 1 35.9137 2.58393 5.41932 -4.11475 7.87629 5.12216
546 1 37.2505 0.475901 5.90347 -4.3898 4.95047 5.18242
547 1 38.5241 2.63417 5.86494 -4.43524 4.005 4.95944
549 1 38.5816 1.19951 3.92016 -4.43954 0.3292 5.25041
740 1 35.9189 0.862595 3.86269 -4.33054 5.48692 5.17038
550 1 37.2996 3.27476 3.68633 -4.24903 4.43996 4.24905
355 1 41.1882 2.84312 5.78754 -4.34035 1.75096 9.06945
375 1 42.4614 0.810943 5.91481 -4.38099 0.450169 10.6417
544 1 39.8989 0.606097 5.98382 -4.44468 4.1501 4.04848
573 1 41.1348 1.311 3.85552 -4.43221 0.106649 5.57801
373 1 44.9206 0.867448 5.89132 -4.43615 0.0948578 5.45394
376 1 43.6521 2.96022 5.704 -4.36202 0.4726 10.3007
378 1 43.6183 1.44682 3.79815 -4.40876 0.205222 10.568
408 1 46.0942 1.68532 3.8714 -4.46333 0.164983 10.9946
196 1 46.0531 3.19246 5.8646 -4.47786 0.452694 4.61941
215 1 49.8454 1.16949 5.87422 -4.42474 0.235378 5.16089
217 1 47.3698 0.988496 5.84815 -4.39234 0.239243 10.7803
220 1 48.5881 1.7262 3.81227 -4.41436 0.107785 11.407
218 1 48.5262 3.24249 5.67014 -4.34383 0.52031 10.0043
77 1 0.484104 3.36726 5.81718 -4.43098 0.522122 4.52303
76 1 1.65731 5.52912 5.58442 -4.37466 0.19373 5.0357
81 1 0.336624 6.25711 3.51631 -4.40767 0.112852 5.46924
95 1 2.98437 3.42877 5.57197 -4.30317 4.90706 4.31769
98 1 1.67688 4.13772 3.59805 -4.42369 0.100232 0.0701988
99 1 2.75075 6.39957 3.53364 -4.39359 0.339628 5.17331
17 1 5.2972 3.70681 6.69649 -4.31615 4.28735 6.44112
18 1 4.05269 5.59047 5.47578 -4.23082 5.71342 8.52944
21 1 5.23289 6.51934 3.48432 -4.28883 8.25775 6.72004
34 1 6.37786 4.67347 4.79678 -4.41251 6.81185 4.84887
96 1 4.15785 4.30153 3.48541 -4.3213 4.61534 10.242
2 1 8.22895 6.34383 5.63577 -4.27216 4.4058 7.17749
31 1 8.63381 4.03084 5.64073 -4.27271 1.21987 0.869902
32 1 9.72457 5.07031 3.73075 -4.29418 5.49697 1.47584
4799 1 10.8113 6.16958 5.67176 -4.3909 3.99856 5.63042
4796 1 11.1177 3.74253 6.19459 -4.44347 0.890481 5.563
4797 1 13.004 5.3346 6.52423 -4.40711 0.103722 5.89713
4798 1 12.2051 4.83461 4.21512 -4.41175 1.13072 5.31681
4817 1 14.1071 6.35202 4.58375 -4.31364 5.48923 9.40174
4814 1 14.4906 3.95174 5.10564 -4.41596 0.0950662 5.37578
4815 1 16.3773 5.51761 5.41231 -4.28662 3.40442 4.03272
4818 1 14.9694 7.0122 6.76662 -4.46046 1.40772 5.04517
4834 1 17.7959 4.25464 3.91631 -4.32443 3.4737 9.21577
4625 1 20.0759 3.58566 4.57592 -4.42028 0.0748521 5.757
4626 1 18.6699 4.91093 6.13885 -4.40559 0.118634 10.9369
4629 1 20.4432 6.57291 6.30148 -4.38902 0.175572 5.43582
4835 1 19.4707 5.94517 4.095 -4.34115 4.15315 4.55166
4624 1 20.9373 4.26038 6.83314 -4.43867 0.123407 5.63681
4657 1 24.1891 4.65901 5.4788 -4.41741 0.0703747 5.60171
4659 1 21.8401 5.27885 4.72149 -4.39466 0.13254 5.61254
4662 1 23.57 6.94899 4.94625 -4.38194 4.60567 4.58125
4442 1 26.5021 3.99276 6.21854 -4.42092 0.179747 10.8115
4445 1 28.2313 5.6221 6.62968 -4.42468 0.173685 11.3305
4693 1 27.5276 5.03288 4.20465 -4.40036 0.280067 10.6747
4696 1 26.0069 6.39876 5.68116 -4.49566 0.789999 10.1783
4481 1 31.943 3.48576 5.85747 -4.4066 0.403077 5.2774
4483 1 29.7163 4.33056 5.07581 -4.40122 0.126626 5.52278
4486 1 31.5193 5.99111 5.4805 -4.39012 0.193379 5.50743
4733 1 29.3344 6.69757 4.72411 -4.34171 0.43368 5.31343
4514 1 35.2211 4.56233 4.17813 -4.32088 5.98132 4.47702
4516 1 32.8219 4.76344 3.82405 -4.22447 4.99876 7.69878
4517 1 33.7238 5.2072 6.1227 -4.35655 4.02439 7.57349
4518 1 35.617 6.85916 6.25633 -4.36329 7.24698 3.15974
4519 1 36.4534 6.73592 4.00554 -4.29718 5.4683 5.50493
551 1 38.5149 5.46128 3.56523 -4.28106 4.34936 4.1196
4540 1 37.3185 4.78003 5.5491 -4.29796 4.91591 8.37834
548 1 39.7675 3.36399 3.76663 -4.42842 0.155749 5.4416
354 1 42.2685 5.0974 5.83486 -4.45309 1.54408 5.22702
356 1 39.773 4.80471 5.78622 -4.40413 2.9586 4.62387
359 1 40.9279 5.5854 3.6553 -4.44025 0.169026 10.8337
379 1 42.3491 3.61248 3.74933 -4.43918 0.213591 10.4987
197 1 44.7356 5.26729 5.57912 -4.31332 0.694411 5.00717
200 1 45.8518 6.06073 3.58911 -4.41574 0.149339 10.9979
377 1 44.7727 3.79798 3.70212 -4.3878 0.153781 5.70622
380 1 43.3605 5.87392 3.69129 -4.41896 0.25303 4.84366
78 1 49.6908 5.4777 5.53242 -4.34863 0.449707 10.1318
195 1 47.1664 5.50581 5.72811 -4.44048 0.544672 9.86358
219 1 49.7133 3.98704 3.62519 -4.40391 0.0936054 5.67355
221 1 47.2296 3.91067 3.76266 -4.45131 0.134671 5.47958
222 1 48.3147 6.13865 3.58337 -4.44004 0.105704 5.435
12 1 2.95492 7.81998 5.43266 -4.41489 4.8348 8.20837
13 1 1.38637 9.849 5.48399 -4.23706 2.2386 8.23378
79 1 0.359214 7.65707 5.49708 -4.40901 0.223317 10.5137
80 1 1.41963 8.54978 3.44489 -4.41268 0.330617 5.52042
16 1 5.781 7.05208 5.8651 -4.27891 4.81584 9.58151
11 1 3.71671 10.2581 5.3449 -4.31763 7.45411 7.03188
20 1 5.94123 9.35035 4.90837 -4.30896 5.36287 4.59746
22 1 3.95355 8.60375 3.42623 -4.40008 4.96907 10.4574
35 1 7.24809 7.58514 3.78392 -4.1738 7.93188 7.03332
1 1 8.41932 9.52426 4.85343 -4.41046 6.46009 5.93711
4895 1 9.56064 7.43614 3.98045 -4.17556 6.57042 9.21393
6401 1 7.37235 8.38382 6.89308 -4.25634 5.06487 4.38616
4896 1 10.7585 9.03086 5.31309 -4.30626 5.803 4.63331
4802 1 12.7166 7.69196 6.08601 -4.31755 4.102 8.44182